# vtk DataFile Version 2.0
VTK from Matlab
ASCII
DATASET UNSTRUCTURED_GRID
POINTS 32 float
0.00000 0.00000 0.00000 
0.00100 0.00000 0.00000 
0.00100 0.00200 0.00000 
0.00000 0.00200 0.00000 
0.00000 0.00000 0.00100 
0.00100 0.00000 0.00100 
0.00100 0.00200 0.00100 
0.00000 0.00200 0.00100 
0.00050 0.00000 0.00000 
0.00100 0.00100 0.00000 
0.00100 0.00050 0.00000 
0.00100 0.00150 0.00000 
0.00050 0.00200 0.00000 
0.00000 0.00100 0.00000 
0.00000 0.00150 0.00000 
0.00000 0.00050 0.00000 
0.00050 0.00000 0.00100 
0.00100 0.00100 0.00100 
0.00100 0.00050 0.00100 
0.00100 0.00150 0.00100 
0.00050 0.00200 0.00100 
0.00000 0.00100 0.00100 
0.00000 0.00150 0.00100 
0.00000 0.00050 0.00100 
0.00000 0.00000 0.00050 
0.00100 0.00000 0.00050 
0.00100 0.00200 0.00050 
0.00000 0.00200 0.00050 
0.00050 0.00100 0.00100 
0.00000 0.00100 0.00050 
0.00050 0.00100 0.00000 
0.00100 0.00100 0.00050 

CELLS 2 18
         8         17          5          4         21          9          1          0         13 
         8          6         17         21          7          2          9         13          3 
CELL_TYPES 2
        12
        12

POINT_DATA 32
SCALARS TV float 2 
LOOKUP_TABLE TV
 2.750000e+02  -5.000000e-02 
 2.750000e+02  -5.000000e-02 
 2.103690e+02  0.000000e+00 
 2.100160e+02  0.000000e+00 
 2.750000e+02  -5.000000e-02 
 2.750000e+02  -5.000000e-02 
 2.088068e+02  0.000000e+00 
 2.092105e+02  0.000000e+00 
 2.750000e+02  -5.000000e-02 
 2.529280e+02  -2.731855e-02 
 2.666279e+02  -3.923889e-02 
 2.341467e+02  -1.424180e-02 
 2.097766e+02  0.000000e+00 
 2.529349e+02  -2.731884e-02 
 2.340915e+02  -1.424044e-02 
 2.666295e+02  -3.923893e-02 
 2.750000e+02  -5.000000e-02 
 2.529588e+02  -2.731769e-02 
 2.666529e+02  -3.923817e-02 
 2.337335e+02  -1.423504e-02 
 2.093476e+02  0.000000e+00 
 2.529583e+02  -2.731729e-02 
 2.337932e+02  -1.423685e-02 
 2.666533e+02  -3.923810e-02 
 2.750000e+02  -5.000000e-02 
 2.750000e+02  -5.000000e-02 
 2.095553e+02  0.000000e+00 
 2.095982e+02  0.000000e+00 
 2.529195e+02  -2.731808e-02 
 2.529503e+02  -2.731801e-02 
 2.529855e+02  -2.731777e-02 
 2.529490e+02  -2.731797e-02 
