# vtk DataFile Version 2.0
VTK from Matlab
ASCII
DATASET UNSTRUCTURED_GRID
POINTS 2208 float
0.00000 0.00000 0.00050 
0.00000 0.00000 0.00000 
0.00000 0.00010 0.00050 
0.00000 0.00010 0.00000 
0.00100 0.00000 0.00050 
0.00100 0.00000 0.00000 
0.00100 0.00010 0.00050 
0.00100 0.00010 0.00000 
0.00100 0.00015 0.00000 
0.00000 0.00015 0.00000 
0.00100 0.00015 0.00050 
0.00000 0.00015 0.00050 
0.00100 0.00135 0.00000 
0.00000 0.00135 0.00000 
0.00100 0.00135 0.00050 
0.00000 0.00135 0.00050 
0.00100 0.00140 0.00000 
0.00000 0.00140 0.00000 
0.00100 0.00140 0.00050 
0.00000 0.00140 0.00050 
0.00100 0.00150 0.00000 
0.00000 0.00150 0.00000 
0.00100 0.00150 0.00050 
0.00000 0.00150 0.00050 
0.00120 0.00140 0.00050 
0.00120 0.00150 0.00050 
0.00120 0.00140 0.00000 
0.00120 0.00150 0.00000 
0.00220 0.00140 0.00050 
0.00220 0.00150 0.00050 
0.00220 0.00140 0.00000 
0.00220 0.00150 0.00000 
0.00120 0.00135 0.00050 
0.00220 0.00135 0.00050 
0.00120 0.00135 0.00000 
0.00220 0.00135 0.00000 
0.00120 0.00015 0.00050 
0.00220 0.00015 0.00050 
0.00120 0.00015 0.00000 
0.00220 0.00015 0.00000 
0.00120 0.00010 0.00050 
0.00220 0.00010 0.00050 
0.00120 0.00010 0.00000 
0.00220 0.00010 0.00000 
0.00120 -0.00000 0.00050 
0.00220 -0.00000 0.00050 
0.00120 -0.00000 0.00000 
0.00220 -0.00000 0.00000 
0.00230 0.00010 0.00050 
0.00230 -0.00000 0.00050 
0.00230 0.00010 0.00000 
0.00230 -0.00000 0.00000 
-0.00010 0.00000 0.00050 
-0.00010 0.00000 0.00000 
-0.00010 0.00010 0.00050 
-0.00010 0.00010 0.00000 
0.00105 0.00015 0.00050 
0.00105 0.00135 0.00050 
0.00105 0.00015 0.00000 
0.00105 0.00135 0.00000 
0.00115 0.00135 0.00050 
0.00115 0.00015 0.00050 
0.00115 0.00135 0.00000 
0.00115 0.00015 0.00000 
0.00100 0.00015 -0.00010 
0.00100 0.00135 -0.00010 
0.00000 0.00015 -0.00010 
0.00000 0.00135 -0.00010 
0.00120 0.00135 -0.00010 
0.00120 0.00015 -0.00010 
0.00220 0.00135 -0.00010 
0.00220 0.00015 -0.00010 
0.00115 0.00135 -0.00010 
0.00115 0.00015 -0.00010 
0.00105 0.00015 -0.00010 
0.00105 0.00135 -0.00010 
0.00100 0.00170 0.00000 
0.00000 0.00170 0.00000 
0.00100 0.00170 0.00050 
0.00000 0.00170 0.00050 
0.00120 0.00170 0.00050 
0.00120 0.00170 0.00000 
0.00220 0.00170 0.00050 
0.00220 0.00170 0.00000 
0.00100 -0.00020 0.00000 
0.00000 -0.00020 0.00000 
0.00100 -0.00020 0.00050 
0.00000 -0.00020 0.00050 
-0.00010 -0.00020 0.00050 
-0.00010 -0.00020 0.00000 
0.00120 -0.00020 0.00050 
0.00220 -0.00020 0.00050 
0.00120 -0.00020 0.00000 
0.00220 -0.00020 0.00000 
0.00230 -0.00020 0.00050 
0.00230 -0.00020 0.00000 
0.00000 0.00000 0.00010 
0.00000 0.00000 0.00020 
0.00000 0.00000 0.00030 
0.00000 0.00000 0.00040 
0.00000 0.00003 0.00050 
0.00000 0.00007 0.00050 
0.00000 0.00010 0.00010 
0.00000 0.00010 0.00020 
0.00000 0.00010 0.00030 
0.00000 0.00010 0.00040 
0.00000 0.00003 0.00000 
0.00000 0.00007 0.00000 
0.00100 0.00000 0.00010 
0.00100 0.00000 0.00020 
0.00100 0.00000 0.00030 
0.00100 0.00000 0.00040 
0.00100 0.00003 0.00050 
0.00100 0.00007 0.00050 
0.00100 0.00010 0.00010 
0.00100 0.00010 0.00020 
0.00100 0.00010 0.00030 
0.00100 0.00010 0.00040 
0.00100 0.00003 0.00000 
0.00100 0.00007 0.00000 
0.00020 0.00000 0.00000 
0.00040 0.00000 0.00000 
0.00060 0.00000 0.00000 
0.00080 0.00000 0.00000 
0.00020 0.00000 0.00050 
0.00040 0.00000 0.00050 
0.00060 0.00000 0.00050 
0.00080 0.00000 0.00050 
0.00020 0.00010 0.00000 
0.00040 0.00010 0.00000 
0.00060 0.00010 0.00000 
0.00080 0.00010 0.00000 
0.00020 0.00010 0.00050 
0.00040 0.00010 0.00050 
0.00060 0.00010 0.00050 
0.00080 0.00010 0.00050 
0.00020 0.00015 0.00000 
0.00040 0.00015 0.00000 
0.00060 0.00015 0.00000 
0.00080 0.00015 0.00000 
0.00100 0.00015 0.00010 
0.00100 0.00015 0.00020 
0.00100 0.00015 0.00030 
0.00100 0.00015 0.00040 
0.00020 0.00015 0.00050 
0.00040 0.00015 0.00050 
0.00060 0.00015 0.00050 
0.00080 0.00015 0.00050 
0.00000 0.00015 0.00010 
0.00000 0.00015 0.00020 
0.00000 0.00015 0.00030 
0.00000 0.00015 0.00040 
0.00100 0.00039 0.00000 
0.00100 0.00063 0.00000 
0.00100 0.00087 0.00000 
0.00100 0.00111 0.00000 
0.00000 0.00039 0.00000 
0.00000 0.00063 0.00000 
0.00000 0.00087 0.00000 
0.00000 0.00111 0.00000 
0.00020 0.00135 0.00000 
0.00040 0.00135 0.00000 
0.00060 0.00135 0.00000 
0.00080 0.00135 0.00000 
0.00100 0.00039 0.00050 
0.00100 0.00063 0.00050 
0.00100 0.00087 0.00050 
0.00100 0.00111 0.00050 
0.00100 0.00135 0.00010 
0.00100 0.00135 0.00020 
0.00100 0.00135 0.00030 
0.00100 0.00135 0.00040 
0.00000 0.00039 0.00050 
0.00000 0.00063 0.00050 
0.00000 0.00087 0.00050 
0.00000 0.00111 0.00050 
0.00020 0.00135 0.00050 
0.00040 0.00135 0.00050 
0.00060 0.00135 0.00050 
0.00080 0.00135 0.00050 
0.00000 0.00135 0.00010 
0.00000 0.00135 0.00020 
0.00000 0.00135 0.00030 
0.00000 0.00135 0.00040 
0.00020 0.00140 0.00000 
0.00040 0.00140 0.00000 
0.00060 0.00140 0.00000 
0.00080 0.00140 0.00000 
0.00100 0.00140 0.00010 
0.00100 0.00140 0.00020 
0.00100 0.00140 0.00030 
0.00100 0.00140 0.00040 
0.00020 0.00140 0.00050 
0.00040 0.00140 0.00050 
0.00060 0.00140 0.00050 
0.00080 0.00140 0.00050 
0.00000 0.00140 0.00010 
0.00000 0.00140 0.00020 
0.00000 0.00140 0.00030 
0.00000 0.00140 0.00040 
0.00100 0.00143 0.00000 
0.00100 0.00147 0.00000 
0.00000 0.00143 0.00000 
0.00000 0.00147 0.00000 
0.00020 0.00150 0.00000 
0.00040 0.00150 0.00000 
0.00060 0.00150 0.00000 
0.00080 0.00150 0.00000 
0.00100 0.00143 0.00050 
0.00100 0.00147 0.00050 
0.00100 0.00150 0.00010 
0.00100 0.00150 0.00020 
0.00100 0.00150 0.00030 
0.00100 0.00150 0.00040 
0.00000 0.00143 0.00050 
0.00000 0.00147 0.00050 
0.00020 0.00150 0.00050 
0.00040 0.00150 0.00050 
0.00060 0.00150 0.00050 
0.00080 0.00150 0.00050 
0.00000 0.00150 0.00010 
0.00000 0.00150 0.00020 
0.00000 0.00150 0.00030 
0.00000 0.00150 0.00040 
0.00104 0.00140 0.00050 
0.00108 0.00140 0.00050 
0.00112 0.00140 0.00050 
0.00116 0.00140 0.00050 
0.00104 0.00150 0.00050 
0.00108 0.00150 0.00050 
0.00112 0.00150 0.00050 
0.00116 0.00150 0.00050 
0.00120 0.00143 0.00050 
0.00120 0.00147 0.00050 
0.00104 0.00140 0.00000 
0.00108 0.00140 0.00000 
0.00112 0.00140 0.00000 
0.00116 0.00140 0.00000 
0.00104 0.00150 0.00000 
0.00108 0.00150 0.00000 
0.00112 0.00150 0.00000 
0.00116 0.00150 0.00000 
0.00120 0.00143 0.00000 
0.00120 0.00147 0.00000 
0.00120 0.00140 0.00010 
0.00120 0.00140 0.00020 
0.00120 0.00140 0.00030 
0.00120 0.00140 0.00040 
0.00120 0.00150 0.00010 
0.00120 0.00150 0.00020 
0.00120 0.00150 0.00030 
0.00120 0.00150 0.00040 
0.00140 0.00140 0.00050 
0.00160 0.00140 0.00050 
0.00180 0.00140 0.00050 
0.00200 0.00140 0.00050 
0.00140 0.00150 0.00050 
0.00160 0.00150 0.00050 
0.00180 0.00150 0.00050 
0.00200 0.00150 0.00050 
0.00220 0.00143 0.00050 
0.00220 0.00147 0.00050 
0.00140 0.00140 0.00000 
0.00160 0.00140 0.00000 
0.00180 0.00140 0.00000 
0.00200 0.00140 0.00000 
0.00140 0.00150 0.00000 
0.00160 0.00150 0.00000 
0.00180 0.00150 0.00000 
0.00200 0.00150 0.00000 
0.00220 0.00143 0.00000 
0.00220 0.00147 0.00000 
0.00220 0.00140 0.00010 
0.00220 0.00140 0.00020 
0.00220 0.00140 0.00030 
0.00220 0.00140 0.00040 
0.00220 0.00150 0.00010 
0.00220 0.00150 0.00020 
0.00220 0.00150 0.00030 
0.00220 0.00150 0.00040 
0.00140 0.00135 0.00050 
0.00160 0.00135 0.00050 
0.00180 0.00135 0.00050 
0.00200 0.00135 0.00050 
0.00140 0.00135 0.00000 
0.00160 0.00135 0.00000 
0.00180 0.00135 0.00000 
0.00200 0.00135 0.00000 
0.00120 0.00135 0.00010 
0.00120 0.00135 0.00020 
0.00120 0.00135 0.00030 
0.00120 0.00135 0.00040 
0.00220 0.00135 0.00010 
0.00220 0.00135 0.00020 
0.00220 0.00135 0.00030 
0.00220 0.00135 0.00040 
0.00120 0.00111 0.00050 
0.00120 0.00087 0.00050 
0.00120 0.00063 0.00050 
0.00120 0.00039 0.00050 
0.00220 0.00111 0.00050 
0.00220 0.00087 0.00050 
0.00220 0.00063 0.00050 
0.00220 0.00039 0.00050 
0.00140 0.00015 0.00050 
0.00160 0.00015 0.00050 
0.00180 0.00015 0.00050 
0.00200 0.00015 0.00050 
0.00120 0.00111 0.00000 
0.00120 0.00087 0.00000 
0.00120 0.00063 0.00000 
0.00120 0.00039 0.00000 
0.00220 0.00111 0.00000 
0.00220 0.00087 0.00000 
0.00220 0.00063 0.00000 
0.00220 0.00039 0.00000 
0.00140 0.00015 0.00000 
0.00160 0.00015 0.00000 
0.00180 0.00015 0.00000 
0.00200 0.00015 0.00000 
0.00120 0.00015 0.00010 
0.00120 0.00015 0.00020 
0.00120 0.00015 0.00030 
0.00120 0.00015 0.00040 
0.00220 0.00015 0.00010 
0.00220 0.00015 0.00020 
0.00220 0.00015 0.00030 
0.00220 0.00015 0.00040 
0.00140 0.00010 0.00050 
0.00160 0.00010 0.00050 
0.00180 0.00010 0.00050 
0.00200 0.00010 0.00050 
0.00140 0.00010 0.00000 
0.00160 0.00010 0.00000 
0.00180 0.00010 0.00000 
0.00200 0.00010 0.00000 
0.00120 0.00010 0.00010 
0.00120 0.00010 0.00020 
0.00120 0.00010 0.00030 
0.00120 0.00010 0.00040 
0.00220 0.00010 0.00010 
0.00220 0.00010 0.00020 
0.00220 0.00010 0.00030 
0.00220 0.00010 0.00040 
0.00120 0.00007 0.00050 
0.00120 0.00003 0.00050 
0.00220 0.00007 0.00050 
0.00220 0.00003 0.00050 
0.00140 0.00000 0.00050 
0.00160 0.00000 0.00050 
0.00180 0.00000 0.00050 
0.00200 0.00000 0.00050 
0.00120 0.00007 0.00000 
0.00120 0.00003 0.00000 
0.00220 0.00007 0.00000 
0.00220 0.00003 0.00000 
0.00140 0.00000 0.00000 
0.00160 0.00000 0.00000 
0.00180 0.00000 0.00000 
0.00200 0.00000 0.00000 
0.00120 0.00000 0.00010 
0.00120 0.00000 0.00020 
0.00120 0.00000 0.00030 
0.00120 0.00000 0.00040 
0.00220 0.00000 0.00010 
0.00220 0.00000 0.00020 
0.00220 0.00000 0.00030 
0.00220 0.00000 0.00040 
0.00230 0.00007 0.00050 
0.00230 0.00003 0.00050 
0.00230 0.00007 0.00000 
0.00230 0.00003 0.00000 
0.00230 0.00010 0.00010 
0.00230 0.00010 0.00020 
0.00230 0.00010 0.00030 
0.00230 0.00010 0.00040 
0.00230 0.00000 0.00010 
0.00230 0.00000 0.00020 
0.00230 0.00000 0.00030 
0.00230 0.00000 0.00040 
-0.00010 0.00000 0.00010 
-0.00010 0.00000 0.00020 
-0.00010 0.00000 0.00030 
-0.00010 0.00000 0.00040 
-0.00010 0.00003 0.00050 
-0.00010 0.00007 0.00050 
-0.00010 0.00010 0.00010 
-0.00010 0.00010 0.00020 
-0.00010 0.00010 0.00030 
-0.00010 0.00010 0.00040 
-0.00010 0.00003 0.00000 
-0.00010 0.00007 0.00000 
0.00105 0.00039 0.00050 
0.00105 0.00063 0.00050 
[...]
CELL_DATA 1540
SCALARS data float 1 
LOOKUP_TABLE data
 3.000000e+00 
 3.000000e+00 
 3.000000e+00 
 3.000000e+00 
 3.000000e+00 
 3.000000e+00 
 3.000000e+00 
 3.000000e+00 
 3.000000e+00 
 3.000000e+00 
 3.000000e+00 
 3.000000e+00 
 3.000000e+00 
 3.000000e+00 
 3.000000e+00 
 3.000000e+00 
 3.000000e+00 
 3.000000e+00 
 3.000000e+00 
 3.000000e+00 
 3.000000e+00 
 3.000000e+00 
 3.000000e+00 
 3.000000e+00 
 3.000000e+00 
 3.000000e+00 
 3.000000e+00 
 3.000000e+00 
 3.000000e+00 
 3.000000e+00 
 3.000000e+00 
 3.000000e+00 
 3.000000e+00 
 3.000000e+00 
 3.000000e+00 
 3.000000e+00 
 3.000000e+00 
 3.000000e+00 
 3.000000e+00 
 3.000000e+00 
 3.000000e+00 
 3.000000e+00 
 3.000000e+00 
 3.000000e+00 
 3.000000e+00 
 3.000000e+00 
 3.000000e+00 
 3.000000e+00 
 3.000000e+00 
 3.000000e+00 
 3.000000e+00 
 3.000000e+00 
 3.000000e+00 
 3.000000e+00 
 3.000000e+00 
 3.000000e+00 
 3.000000e+00 
 3.000000e+00 
 3.000000e+00 
 3.000000e+00 
 3.000000e+00 
 3.000000e+00 
 3.000000e+00 
 3.000000e+00 
 3.000000e+00 
 3.000000e+00 
 3.000000e+00 
 3.000000e+00 
 3.000000e+00 
 3.000000e+00 
 3.000000e+00 
 3.000000e+00 
 3.000000e+00 
 3.000000e+00 
 3.000000e+00 
 4.000000e+00 
 4.000000e+00 
 4.000000e+00 
 4.000000e+00 
 4.000000e+00 
 4.000000e+00 
 4.000000e+00 
 4.000000e+00 
 4.000000e+00 
 4.000000e+00 
 4.000000e+00 
 4.000000e+00 
 4.000000e+00 
 4.000000e+00 
 4.000000e+00 
 4.000000e+00 
 4.000000e+00 
 4.000000e+00 
 4.000000e+00 
 4.000000e+00 
 4.000000e+00 
 4.000000e+00 
 4.000000e+00 
 4.000000e+00 
 4.000000e+00 
 2.000000e+00 
 2.000000e+00 
 2.000000e+00 
 2.000000e+00 
 2.000000e+00 
 2.000000e+00 
 2.000000e+00 
 2.000000e+00 
 2.000000e+00 
 2.000000e+00 
 2.000000e+00 
 2.000000e+00 
 2.000000e+00 
 2.000000e+00 
 2.000000e+00 
 2.000000e+00 
 2.000000e+00 
 2.000000e+00 
 2.000000e+00 
 2.000000e+00 
 2.000000e+00 
 2.000000e+00 
 2.000000e+00 
 2.000000e+00 
 2.000000e+00 
 2.000000e+00 
 2.000000e+00 
 2.000000e+00 
 2.000000e+00 
 2.000000e+00 
 2.000000e+00 
 2.000000e+00 
 2.000000e+00 
 2.000000e+00 
 2.000000e+00 
 2.000000e+00 
 2.000000e+00 
 2.000000e+00 
 2.000000e+00 
 2.000000e+00 
 2.000000e+00 
 2.000000e+00 
 2.000000e+00 
 2.000000e+00 
 2.000000e+00 
 2.000000e+00 
 2.000000e+00 
 2.000000e+00 
 2.000000e+00 
 2.000000e+00 
 2.000000e+00 
 2.000000e+00 
 2.000000e+00 
 2.000000e+00 
 2.000000e+00 
 2.000000e+00 
 2.000000e+00 
 2.000000e+00 
 2.000000e+00 
 2.000000e+00 
 2.000000e+00 
 2.000000e+00 
 2.000000e+00 
 2.000000e+00 
 2.000000e+00 
 2.000000e+00 
 2.000000e+00 
 2.000000e+00 
 2.000000e+00 
 2.000000e+00 
 2.000000e+00 
 2.000000e+00 
 2.000000e+00 
 2.000000e+00 
 2.000000e+00 
 2.000000e+00 
 2.000000e+00 
 2.000000e+00 
 2.000000e+00 
 2.000000e+00 
 2.000000e+00 
 2.000000e+00 
 2.000000e+00 
 2.000000e+00 
 2.000000e+00 
 2.000000e+00 
 2.000000e+00 
 2.000000e+00 
 2.000000e+00 
 2.000000e+00 
 2.000000e+00 
 2.000000e+00 
 2.000000e+00 
 2.000000e+00 
 2.000000e+00 
 2.000000e+00 
 2.000000e+00 
 2.000000e+00 
 2.000000e+00 
 2.000000e+00 
 2.000000e+00 
 2.000000e+00 
 2.000000e+00 
 2.000000e+00 
 2.000000e+00 
 2.000000e+00 
 2.000000e+00 
 2.000000e+00 
 2.000000e+00 
 2.000000e+00 
 2.000000e+00 
 2.000000e+00 
 2.000000e+00 
 2.000000e+00 
 2.000000e+00 
 2.000000e+00 
 2.000000e+00 
 2.000000e+00 
 2.000000e+00 
 2.000000e+00 
 2.000000e+00 
 2.000000e+00 
 2.000000e+00 
 2.000000e+00 
 2.000000e+00 
 4.000000e+00 
 4.000000e+00 
 4.000000e+00 
 4.000000e+00 
 4.000000e+00 
 4.000000e+00 
 4.000000e+00 
 4.000000e+00 
 4.000000e+00 
 4.000000e+00 
 4.000000e+00 
 4.000000e+00 
 4.000000e+00 
 4.000000e+00 
 4.000000e+00 
 4.000000e+00 
 4.000000e+00 
 4.000000e+00 
 4.000000e+00 
 4.000000e+00 
 4.000000e+00 
 4.000000e+00 
 4.000000e+00 
 4.000000e+00 
 4.000000e+00 
 3.000000e+00 
 3.000000e+00 
 3.000000e+00 
 3.000000e+00 
 3.000000e+00 
 3.000000e+00 
 3.000000e+00 
 3.000000e+00 
 3.000000e+00 
 3.000000e+00 
 3.000000e+00 
 3.000000e+00 
 3.000000e+00 
 3.000000e+00 
 3.000000e+00 
 3.000000e+00 
 3.000000e+00 
 3.000000e+00 
 3.000000e+00 
 3.000000e+00 
 3.000000e+00 
 3.000000e+00 
 3.000000e+00 
 3.000000e+00 
 3.000000e+00 
 3.000000e+00 
 3.000000e+00 
 3.000000e+00 
 3.000000e+00 
 3.000000e+00 
 3.000000e+00 
 3.000000e+00 
 3.000000e+00 
 3.000000e+00 
 3.000000e+00 
 3.000000e+00 
 3.000000e+00 
 3.000000e+00 
 3.000000e+00 
 3.000000e+00 
 3.000000e+00 
 3.000000e+00 
 3.000000e+00 
 3.000000e+00 
 3.000000e+00 
 3.000000e+00 
 3.000000e+00 
 3.000000e+00 
 3.000000e+00 
 3.000000e+00 
 3.000000e+00 
 3.000000e+00 
 3.000000e+00 
 3.000000e+00 
 3.000000e+00 
 3.000000e+00 
 3.000000e+00 
 3.000000e+00 
 3.000000e+00 
 3.000000e+00 
 3.000000e+00 
 3.000000e+00 
 3.000000e+00 
 3.000000e+00 
 3.000000e+00 
 3.000000e+00 
 3.000000e+00 
 3.000000e+00 
 3.000000e+00 
 3.000000e+00 
 3.000000e+00 
 3.000000e+00 
 3.000000e+00 
 3.000000e+00 
 3.000000e+00 
 3.000000e+00 
 3.000000e+00 
 3.000000e+00 
 3.000000e+00 
 3.000000e+00 
 3.000000e+00 
 3.000000e+00 
 3.000000e+00 
 3.000000e+00 
 3.000000e+00 
 3.000000e+00 
 3.000000e+00 
 3.000000e+00 
 3.000000e+00 
 3.000000e+00 
 3.000000e+00 
 3.000000e+00 
 3.000000e+00 
 3.000000e+00 
 3.000000e+00 
 3.000000e+00 
 3.000000e+00 
 3.000000e+00 
 3.000000e+00 
 3.000000e+00 
 3.000000e+00 
 3.000000e+00 
 3.000000e+00 
 3.000000e+00 
 3.000000e+00 
 3.000000e+00 
 3.000000e+00 
 3.000000e+00 
 3.000000e+00 
 3.000000e+00 
 3.000000e+00 
 3.000000e+00 
 3.000000e+00 
 3.000000e+00 
 3.000000e+00 
 3.000000e+00 
 3.000000e+00 
 3.000000e+00 
 3.000000e+00 
 3.000000e+00 
 3.000000e+00 
 3.000000e+00 
 3.000000e+00 
 3.000000e+00 
 3.000000e+00 
 3.000000e+00 
 3.000000e+00 
 3.000000e+00 
 3.000000e+00 
 3.000000e+00 
 3.000000e+00 
 3.000000e+00 
 3.000000e+00 
 3.000000e+00 
 3.000000e+00 
 3.000000e+00 
 3.000000e+00 
 3.000000e+00 
 3.000000e+00 
 3.000000e+00 
 3.000000e+00 
 3.000000e+00 
 3.000000e+00 
 3.000000e+00 
 3.000000e+00 
 3.000000e+00 
 3.000000e+00 
 3.000000e+00 
 3.000000e+00 
 3.000000e+00 
 3.000000e+00 
 3.000000e+00 
 3.000000e+00 
 3.000000e+00 
 3.000000e+00 
 3.000000e+00 
 3.000000e+00 
 3.000000e+00 
 3.000000e+00 
 3.000000e+00 
 3.000000e+00 
 3.000000e+00 
 3.000000e+00 
 3.000000e+00 
 3.000000e+00 
 3.000000e+00 
 3.000000e+00 
 3.000000e+00 
 3.000000e+00 
 3.000000e+00 
 3.000000e+00 
 3.000000e+00 
 3.000000e+00 
 3.000000e+00 
 3.000000e+00 
 3.000000e+00 
 3.000000e+00 
 3.000000e+00 
 3.000000e+00 
 3.000000e+00 
 3.000000e+00 
 3.000000e+00 
 3.000000e+00 
 3.000000e+00 
 3.000000e+00 
 3.000000e+00 
 3.000000e+00 
 3.000000e+00 
 3.000000e+00 
 3.000000e+00 
 3.000000e+00 
 3.000000e+00 
 3.000000e+00 
 3.000000e+00 
 3.000000e+00 
 3.000000e+00 
 3.000000e+00 
 3.000000e+00 
 3.000000e+00 
 3.000000e+00 
 3.000000e+00 
 3.000000e+00 
 3.000000e+00 
 3.000000e+00 
 3.000000e+00 
 3.000000e+00 
 3.000000e+00 
 3.000000e+00 
 3.000000e+00 
 3.000000e+00 
 3.000000e+00 
 3.000000e+00 
 3.000000e+00 
 3.000000e+00 
 3.000000e+00 
 3.000000e+00 
 3.000000e+00 
 3.000000e+00 
 3.000000e+00 
 3.000000e+00 
 3.000000e+00 
 3.000000e+00 
 3.000000e+00 
 3.000000e+00 
 3.000000e+00 
 4.000000e+00 
 4.000000e+00 
 4.000000e+00 
 4.000000e+00 
 4.000000e+00 
 4.000000e+00 
 4.000000e+00 
 4.000000e+00 
 4.000000e+00 
 4.000000e+00 
 4.000000e+00 
 4.000000e+00 
 4.000000e+00 
 4.000000e+00 
 4.000000e+00 
 4.000000e+00 
 4.000000e+00 
 4.000000e+00 
 4.000000e+00 
 4.000000e+00 
 4.000000e+00 
 4.000000e+00 
 4.000000e+00 
 4.000000e+00 
 4.000000e+00 
 1.000000e+00 
 1.000000e+00 
 1.000000e+00 
 1.000000e+00 
 1.000000e+00 
 1.000000e+00 
 1.000000e+00 
 1.000000e+00 
 1.000000e+00 
 1.000000e+00 
 1.000000e+00 
 1.000000e+00 
 1.000000e+00 
 1.000000e+00 
 1.000000e+00 
 1.000000e+00 
 1.000000e+00 
 1.000000e+00 
 1.000000e+00 
 1.000000e+00 
 1.000000e+00 
 1.000000e+00 
 1.000000e+00 
 1.000000e+00 
 1.000000e+00 
 1.000000e+00 
 1.000000e+00 
 1.000000e+00 
 1.000000e+00 
 1.000000e+00 
 1.000000e+00 
 1.000000e+00 
 1.000000e+00 
 1.000000e+00 
 1.000000e+00 
 1.000000e+00 
 1.000000e+00 
 1.000000e+00 
 1.000000e+00 
 1.000000e+00 
 1.000000e+00 
 1.000000e+00 
 1.000000e+00 
 1.000000e+00 
 1.000000e+00 
 1.000000e+00 
 1.000000e+00 
 1.000000e+00 
 1.000000e+00 
 1.000000e+00 
 1.000000e+00 
 1.000000e+00 
 1.000000e+00 
 1.000000e+00 
 1.000000e+00 
 1.000000e+00 
 1.000000e+00 
 1.000000e+00 
 1.000000e+00 
 1.000000e+00 
 1.000000e+00 
 1.000000e+00 
 1.000000e+00 
 1.000000e+00 
 1.000000e+00 
 1.000000e+00 
 1.000000e+00 
 1.000000e+00 
 1.000000e+00 
 1.000000e+00 
 1.000000e+00 
 1.000000e+00 
 1.000000e+00 
 1.000000e+00 
 1.000000e+00 
 1.000000e+00 
 1.000000e+00 
 1.000000e+00 
 1.000000e+00 
 1.000000e+00 
 1.000000e+00 
 1.000000e+00 
 1.000000e+00 
 1.000000e+00 
 1.000000e+00 
 1.000000e+00 
 1.000000e+00 
 1.000000e+00 
 1.000000e+00 
 1.000000e+00 
 1.000000e+00 
 1.000000e+00 
 1.000000e+00 
 1.000000e+00 
 1.000000e+00 
 1.000000e+00 
 1.000000e+00 
 1.000000e+00 
 1.000000e+00 
 1.000000e+00 
 1.000000e+00 
 1.000000e+00 
 1.000000e+00 
 1.000000e+00 
 1.000000e+00 
 1.000000e+00 
 1.000000e+00 
 1.000000e+00 
 1.000000e+00 
 1.000000e+00 
 1.000000e+00 
 1.000000e+00 
 1.000000e+00 
 1.000000e+00 
 1.000000e+00 
 1.000000e+00 
 1.000000e+00 
 1.000000e+00 
 1.000000e+00 
 1.000000e+00 
 1.000000e+00 
 1.000000e+00 
 1.000000e+00 
 1.000000e+00 
 1.000000e+00 
 4.000000e+00 
 4.000000e+00 
 4.000000e+00 
 4.000000e+00 
 4.000000e+00 
 4.000000e+00 
 4.000000e+00 
 4.000000e+00 
 4.000000e+00 
 4.000000e+00 
 4.000000e+00 
 4.000000e+00 
 4.000000e+00 
 4.000000e+00 
 4.000000e+00 
 4.000000e+00 
 4.000000e+00 
 4.000000e+00 
 4.000000e+00 
 4.000000e+00 
 4.000000e+00 
 4.000000e+00 
 4.000000e+00 
 4.000000e+00 
 4.000000e+00 
 3.000000e+00 
 3.000000e+00 
 3.000000e+00 
 3.000000e+00 
 3.000000e+00 
 3.000000e+00 
 3.000000e+00 
 3.000000e+00 
 3.000000e+00 
 3.000000e+00 
 3.000000e+00 
 3.000000e+00 
 3.000000e+00 
 3.000000e+00 
 3.000000e+00 
 3.000000e+00 
 3.000000e+00 
 3.000000e+00 
 3.000000e+00 
 3.000000e+00 
 3.000000e+00 
 3.000000e+00 
 3.000000e+00 
 3.000000e+00 
 3.000000e+00 
 3.000000e+00 
 3.000000e+00 
 3.000000e+00 
 3.000000e+00 
 3.000000e+00 
 3.000000e+00 
 3.000000e+00 
 3.000000e+00 
 3.000000e+00 
 3.000000e+00 
 3.000000e+00 
 3.000000e+00 
 3.000000e+00 
 3.000000e+00 
 3.000000e+00 
 3.000000e+00 
 3.000000e+00 
 3.000000e+00 
 3.000000e+00 
 3.000000e+00 
 3.000000e+00 
 3.000000e+00 
 3.000000e+00 
 3.000000e+00 
 3.000000e+00 
 3.000000e+00 
 3.000000e+00 
 3.000000e+00 
 3.000000e+00 
 3.000000e+00 
 3.000000e+00 
 3.000000e+00 
 3.000000e+00 
 3.000000e+00 
 3.000000e+00 
 3.000000e+00 
 3.000000e+00 
 3.000000e+00 
 3.000000e+00 
 3.000000e+00 
 3.000000e+00 
 3.000000e+00 
 3.000000e+00 
 3.000000e+00 
 3.000000e+00 
 3.000000e+00 
 3.000000e+00 
 3.000000e+00 
 3.000000e+00 
 3.000000e+00 
 3.000000e+00 
 3.000000e+00 
 3.000000e+00 
 3.000000e+00 
 3.000000e+00 
 3.000000e+00 
 3.000000e+00 
 3.000000e+00 
 3.000000e+00 
 3.000000e+00 
 3.000000e+00 
 3.000000e+00 
 3.000000e+00 
 3.000000e+00 
 3.000000e+00 
 3.000000e+00 
 3.000000e+00 
 3.000000e+00 
 3.000000e+00 
 3.000000e+00 
 3.000000e+00 
 3.000000e+00 
 3.000000e+00 
 3.000000e+00 
 3.000000e+00 
 3.000000e+00 
 3.000000e+00 
 3.000000e+00 
 3.000000e+00 
 3.000000e+00 
 2.000000e+00 
 2.000000e+00 
 2.000000e+00 
 2.000000e+00 
 2.000000e+00 
 2.000000e+00 
 2.000000e+00 
 2.000000e+00 
 2.000000e+00 
 2.000000e+00 
 2.000000e+00 
 2.000000e+00 
 2.000000e+00 
 2.000000e+00 
 2.000000e+00 
 2.000000e+00 
 2.000000e+00 
 2.000000e+00 
 2.000000e+00 
 2.000000e+00 
 2.000000e+00 
 2.000000e+00 
 2.000000e+00 
 2.000000e+00 
 2.000000e+00 
 1.000000e+00 
 1.000000e+00 
 1.000000e+00 
 1.000000e+00 
 1.000000e+00 
 1.000000e+00 
 1.000000e+00 
 1.000000e+00 
 1.000000e+00 
 1.000000e+00 
 1.000000e+00 
 1.000000e+00 
 1.000000e+00 
 1.000000e+00 
 1.000000e+00 
 1.000000e+00 
 1.000000e+00 
 1.000000e+00 
 1.000000e+00 
 1.000000e+00 
 1.000000e+00 
 1.000000e+00 
 1.000000e+00 
 1.000000e+00 
 1.000000e+00 
 2.000000e+00 
 2.000000e+00 
 2.000000e+00 
 2.000000e+00 
 2.000000e+00 
 2.000000e+00 
 2.000000e+00 
 2.000000e+00 
 2.000000e+00 
 2.000000e+00 
 2.000000e+00 
 2.000000e+00 
 2.000000e+00 
 2.000000e+00 
 2.000000e+00 
 2.000000e+00 
 2.000000e+00 
 2.000000e+00 
 2.000000e+00 
 2.000000e+00 
 2.000000e+00 
 2.000000e+00 
 2.000000e+00 
 2.000000e+00 
 2.000000e+00 
 1.000000e+00 
 1.000000e+00 
 1.000000e+00 
 1.000000e+00 
 1.000000e+00 
 1.000000e+00 
 1.000000e+00 
 1.000000e+00 
 1.000000e+00 
 1.000000e+00 
 1.000000e+00 
 1.000000e+00 
 1.000000e+00 
 1.000000e+00 
 1.000000e+00 
 1.000000e+00 
 1.000000e+00 
 1.000000e+00 
 1.000000e+00 
 1.000000e+00 
 1.000000e+00 
 1.000000e+00 
 1.000000e+00 
 1.000000e+00 
 1.000000e+00 
 1.000000e+00 
 1.000000e+00 
 1.000000e+00 
 1.000000e+00 
 1.000000e+00 
 2.000000e+00 
 2.000000e+00 
 2.000000e+00 
 2.000000e+00 
 2.000000e+00 
 5.000000e+00 
 5.000000e+00 
 5.000000e+00 
 5.000000e+00 
 5.000000e+00 
 5.000000e+00 
 5.000000e+00 
 5.000000e+00 
 5.000000e+00 
 5.000000e+00 
 5.000000e+00 
 5.000000e+00 
 5.000000e+00 
 5.000000e+00 
 5.000000e+00 
 5.000000e+00 
 5.000000e+00 
 5.000000e+00 
 5.000000e+00 
 5.000000e+00 
 5.000000e+00 
 5.000000e+00 
 5.000000e+00 
 5.000000e+00 
 5.000000e+00 
 5.000000e+00 
 5.000000e+00 
 5.000000e+00 
 5.000000e+00 
 5.000000e+00 
 5.000000e+00 
 5.000000e+00 
 5.000000e+00 
 5.000000e+00 
 5.000000e+00 
 5.000000e+00 
 5.000000e+00 
 5.000000e+00 
 5.000000e+00 
 5.000000e+00 
 5.000000e+00 
 5.000000e+00 
 5.000000e+00 
 5.000000e+00 
 5.000000e+00 
 5.000000e+00 
 5.000000e+00 
 5.000000e+00 
 5.000000e+00 
 5.000000e+00 
 5.000000e+00 
 5.000000e+00 
 5.000000e+00 
 5.000000e+00 
 5.000000e+00 
 5.000000e+00 
 5.000000e+00 
 5.000000e+00 
 5.000000e+00 
 5.000000e+00 
 5.000000e+00 
 5.000000e+00 
 5.000000e+00 
 5.000000e+00 
 5.000000e+00 
 5.000000e+00 
 5.000000e+00 
 5.000000e+00 
 5.000000e+00 
 5.000000e+00 
 5.000000e+00 
 5.000000e+00 
 5.000000e+00 
 5.000000e+00 
 5.000000e+00 
 5.000000e+00 
 5.000000e+00 
 5.000000e+00 
 5.000000e+00 
 5.000000e+00 
 5.000000e+00 
 5.000000e+00 
 5.000000e+00 
 5.000000e+00 
 5.000000e+00 
 5.000000e+00 
 5.000000e+00 
 5.000000e+00 
 5.000000e+00 
 5.000000e+00 
 5.000000e+00 
 5.000000e+00 
 5.000000e+00 
 5.000000e+00 
 5.000000e+00 
 5.000000e+00 
 5.000000e+00 
 5.000000e+00 
 5.000000e+00 
 5.000000e+00 
 5.000000e+00 
 5.000000e+00 
 5.000000e+00 
 5.000000e+00 
 5.000000e+00 
 5.000000e+00 
 5.000000e+00 
 5.000000e+00 
 5.000000e+00 
 5.000000e+00 
 5.000000e+00 
 5.000000e+00 
 5.000000e+00 
 5.000000e+00 
 5.000000e+00 
 5.000000e+00 
 5.000000e+00 
 5.000000e+00 
 5.000000e+00 
 5.000000e+00 
 5.000000e+00 
 5.000000e+00 
 5.000000e+00 
 5.000000e+00 
 5.000000e+00 
 5.000000e+00 
 5.000000e+00 
 5.000000e+00 
 5.000000e+00 
 5.000000e+00 
 5.000000e+00 
 5.000000e+00 
 5.000000e+00 
 5.000000e+00 
 5.000000e+00 
 5.000000e+00 
 5.000000e+00 
 5.000000e+00 
 5.000000e+00 
 5.000000e+00 
 5.000000e+00 
 5.000000e+00 
 5.000000e+00 
 5.000000e+00 
 5.000000e+00 
 5.000000e+00 
 5.000000e+00 
 5.000000e+00 
 5.000000e+00 
 5.000000e+00 
 5.000000e+00 
 5.000000e+00 
 5.000000e+00 
 5.000000e+00 
 5.000000e+00 
 5.000000e+00 
 5.000000e+00 
 5.000000e+00 
 5.000000e+00 
 5.000000e+00 
 5.000000e+00 
 5.000000e+00 
 5.000000e+00 
 5.000000e+00 
 5.000000e+00 
 5.000000e+00 
 5.000000e+00 
 5.000000e+00 
 5.000000e+00 
 5.000000e+00 
 5.000000e+00 
 5.000000e+00 
 5.000000e+00 
 5.000000e+00 
 5.000000e+00 
 5.000000e+00 
 5.000000e+00 
 5.000000e+00 
 5.000000e+00 
 5.000000e+00 
 5.000000e+00 
 5.000000e+00 
 5.000000e+00 
 5.000000e+00 
 5.000000e+00 
 5.000000e+00 
 5.000000e+00 
 5.000000e+00 
 5.000000e+00 
 5.000000e+00 
 5.000000e+00 
 5.000000e+00 
 5.000000e+00 
 5.000000e+00 
 5.000000e+00 
 5.000000e+00 
 5.000000e+00 
 5.000000e+00 
 5.000000e+00 
 5.000000e+00 
 5.000000e+00 
 5.000000e+00 
 5.000000e+00 
 5.000000e+00 
 5.000000e+00 
 5.000000e+00 
 5.000000e+00 
 5.000000e+00 
 5.000000e+00 
 5.000000e+00 
 5.000000e+00 
 5.000000e+00 
 5.000000e+00 
 5.000000e+00 
 5.000000e+00 
 5.000000e+00 
 5.000000e+00 
 5.000000e+00 
 5.000000e+00 
 5.000000e+00 
 5.000000e+00 
 5.000000e+00 
 5.000000e+00 
 5.000000e+00 
 5.000000e+00 
 5.000000e+00 
 5.000000e+00 
 5.000000e+00 
 5.000000e+00 
 5.000000e+00 
 5.000000e+00 
 5.000000e+00 
 5.000000e+00 
 5.000000e+00 
 5.000000e+00 
 5.000000e+00 
 5.000000e+00 
 5.000000e+00 
 5.000000e+00 
 5.000000e+00 
 5.000000e+00 
 5.000000e+00 
 5.000000e+00 
 5.000000e+00 
 5.000000e+00 
 5.000000e+00 
 5.000000e+00 
 5.000000e+00 
 5.000000e+00 
 5.000000e+00 
 5.000000e+00 
 5.000000e+00 
 5.000000e+00 
 5.000000e+00 
 5.000000e+00 
 5.000000e+00 
 5.000000e+00 
 5.000000e+00 
 5.000000e+00 
 5.000000e+00 
 5.000000e+00 
 5.000000e+00 
 5.000000e+00 
 5.000000e+00 
 5.000000e+00 
 5.000000e+00 
 5.000000e+00 
 5.000000e+00 
 5.000000e+00 
 5.000000e+00 
 5.000000e+00 
 5.000000e+00 
 5.000000e+00 
 5.000000e+00 
 5.000000e+00 
 5.000000e+00 
 5.000000e+00 
 5.000000e+00 
 5.000000e+00 
 5.000000e+00 
 5.000000e+00 
 5.000000e+00 
 5.000000e+00 
 5.000000e+00 
 5.000000e+00 
 5.000000e+00 
 5.000000e+00 
 5.000000e+00 
 5.000000e+00 
 5.000000e+00 
 5.000000e+00 
 5.000000e+00 
 5.000000e+00 
 5.000000e+00 
 5.000000e+00 
 5.000000e+00 
 5.000000e+00 
 5.000000e+00 
 5.000000e+00 
 5.000000e+00 
 5.000000e+00 
 5.000000e+00 
 5.000000e+00 
 5.000000e+00 
 5.000000e+00 
 5.000000e+00 
 5.000000e+00 
 5.000000e+00 
 5.000000e+00 
 5.000000e+00 
 5.000000e+00 
 5.000000e+00 
 5.000000e+00 
 5.000000e+00 
 5.000000e+00 
 5.000000e+00 
 5.000000e+00 
 5.000000e+00 
 5.000000e+00 
 5.000000e+00 
 5.000000e+00 
 5.000000e+00 
 5.000000e+00 
 5.000000e+00 
 5.000000e+00 
 5.000000e+00 
 5.000000e+00 
 5.000000e+00 
 5.000000e+00 
 5.000000e+00 
 5.000000e+00 
 5.000000e+00 
 5.000000e+00 
 5.000000e+00 
 5.000000e+00 
 5.000000e+00 
 5.000000e+00 
 5.000000e+00 
 5.000000e+00 
 5.000000e+00 
 5.000000e+00 
 5.000000e+00 
 5.000000e+00 
 5.000000e+00 
 5.000000e+00 
 5.000000e+00 
 5.000000e+00 
 5.000000e+00 
 5.000000e+00 
 5.000000e+00 
 5.000000e+00 
 5.000000e+00 
 5.000000e+00 
 5.000000e+00 
 5.000000e+00 
 5.000000e+00 
 5.000000e+00 
 5.000000e+00 
 5.000000e+00 
 5.000000e+00 
 5.000000e+00 
 5.000000e+00 
 5.000000e+00 
 5.000000e+00 
 5.000000e+00 
 5.000000e+00 
 5.000000e+00 
 5.000000e+00 
 5.000000e+00 
 5.000000e+00 
 5.000000e+00 
 5.000000e+00 
 5.000000e+00 
 5.000000e+00 
 5.000000e+00 
 5.000000e+00 
 5.000000e+00 
 5.000000e+00 
 5.000000e+00 
 5.000000e+00 
 5.000000e+00 
 5.000000e+00 
 5.000000e+00 
 5.000000e+00 
 5.000000e+00 
 5.000000e+00 
 5.000000e+00 
 5.000000e+00 
 5.000000e+00 
 5.000000e+00 
 5.000000e+00 
 5.000000e+00 
 5.000000e+00 
 5.000000e+00 
 5.000000e+00 
 5.000000e+00 
 5.000000e+00 
 5.000000e+00 
 5.000000e+00 
 5.000000e+00 
 5.000000e+00 
 5.000000e+00 
 5.000000e+00 
 5.000000e+00 
 5.000000e+00 
 5.000000e+00 
 5.000000e+00 
 5.000000e+00 
 5.000000e+00 
 5.000000e+00 
 5.000000e+00 
 5.000000e+00 
 5.000000e+00 
 5.000000e+00 
 5.000000e+00 
 5.000000e+00 
 5.000000e+00 
 5.000000e+00 
 5.000000e+00 
 5.000000e+00 
 5.000000e+00 
 5.000000e+00 
 5.000000e+00 
 5.000000e+00 
 5.000000e+00 
 5.000000e+00 
 5.000000e+00 
 5.000000e+00 
 5.000000e+00 
 5.000000e+00 
 5.000000e+00 
 5.000000e+00 
 5.000000e+00 
 5.000000e+00 
 5.000000e+00 
 5.000000e+00 
 5.000000e+00 
 5.000000e+00 
 5.000000e+00 
 5.000000e+00 
 5.000000e+00 
 5.000000e+00 
 5.000000e+00 
 5.000000e+00 
 5.000000e+00 
 5.000000e+00 
 5.000000e+00 
 5.000000e+00 
 5.000000e+00 
 5.000000e+00 
 5.000000e+00 
 5.000000e+00 
 5.000000e+00 
 5.000000e+00 
 5.000000e+00 
 5.000000e+00 
 5.000000e+00 
 5.000000e+00 
 5.000000e+00 
 5.000000e+00 
 5.000000e+00 
 5.000000e+00 
 5.000000e+00 
 5.000000e+00 