# vtk DataFile Version 2.0
VTK from Matlab
ASCII
DATASET UNSTRUCTURED_GRID
POINTS 1626 float
0.00000 0.00000 0.00000 
0.00100 0.00000 0.00000 
0.00100 0.00120 0.00000 
0.00000 0.00120 0.00000 
0.00100 0.00130 0.00000 
0.00000 0.00130 0.00000 
0.00120 0.00120 0.00000 
0.00120 0.00130 0.00000 
0.00220 0.00120 0.00000 
0.00220 0.00130 0.00000 
0.00120 0.00000 0.00000 
0.00220 0.00000 0.00000 
0.00120 -0.00010 0.00000 
0.00220 -0.00010 0.00000 
0.00000 -0.00010 0.00000 
0.00100 -0.00010 0.00000 
0.00230 0.00000 0.00000 
0.00230 -0.00010 0.00000 
-0.00010 0.00000 0.00000 
-0.00010 -0.00010 0.00000 
0.00000 -0.00030 0.00000 
0.00100 -0.00030 0.00000 
-0.00010 -0.00030 0.00000 
0.00120 -0.00030 0.00000 
0.00220 -0.00030 0.00000 
0.00230 -0.00030 0.00000 
0.00100 0.00150 0.00000 
0.00000 0.00150 0.00000 
0.00120 0.00150 0.00000 
0.00220 0.00150 0.00000 
0.00005 0.00000 0.00000 
0.00010 0.00000 0.00000 
0.00015 0.00000 0.00000 
0.00020 0.00000 0.00000 
0.00025 0.00000 0.00000 
0.00030 0.00000 0.00000 
0.00035 0.00000 0.00000 
0.00040 0.00000 0.00000 
0.00045 0.00000 0.00000 
0.00050 0.00000 0.00000 
0.00055 0.00000 0.00000 
0.00060 0.00000 0.00000 
0.00065 0.00000 0.00000 
0.00070 0.00000 0.00000 
0.00075 0.00000 0.00000 
0.00080 0.00000 0.00000 
0.00085 0.00000 0.00000 
0.00090 0.00000 0.00000 
0.00095 0.00000 0.00000 
0.00100 0.00006 0.00000 
0.00100 0.00012 0.00000 
0.00100 0.00018 0.00000 
0.00100 0.00024 0.00000 
0.00100 0.00030 0.00000 
0.00100 0.00036 0.00000 
0.00100 0.00042 0.00000 
0.00100 0.00048 0.00000 
0.00100 0.00054 0.00000 
0.00100 0.00060 0.00000 
0.00100 0.00066 0.00000 
0.00100 0.00072 0.00000 
0.00100 0.00078 0.00000 
0.00100 0.00084 0.00000 
0.00100 0.00090 0.00000 
0.00100 0.00096 0.00000 
0.00100 0.00102 0.00000 
0.00100 0.00108 0.00000 
0.00100 0.00114 0.00000 
0.00095 0.00120 0.00000 
0.00090 0.00120 0.00000 
0.00085 0.00120 0.00000 
0.00080 0.00120 0.00000 
0.00075 0.00120 0.00000 
0.00070 0.00120 0.00000 
0.00065 0.00120 0.00000 
0.00060 0.00120 0.00000 
0.00055 0.00120 0.00000 
0.00050 0.00120 0.00000 
0.00045 0.00120 0.00000 
0.00040 0.00120 0.00000 
0.00035 0.00120 0.00000 
0.00030 0.00120 0.00000 
0.00025 0.00120 0.00000 
0.00020 0.00120 0.00000 
0.00015 0.00120 0.00000 
0.00010 0.00120 0.00000 
0.00005 0.00120 0.00000 
0.00000 0.00114 0.00000 
0.00000 0.00108 0.00000 
0.00000 0.00102 0.00000 
0.00000 0.00096 0.00000 
0.00000 0.00090 0.00000 
0.00000 0.00084 0.00000 
0.00000 0.00078 0.00000 
0.00000 0.00072 0.00000 
0.00000 0.00066 0.00000 
0.00000 0.00060 0.00000 
0.00000 0.00054 0.00000 
0.00000 0.00048 0.00000 
0.00000 0.00042 0.00000 
0.00000 0.00036 0.00000 
0.00000 0.00030 0.00000 
0.00000 0.00024 0.00000 
0.00000 0.00018 0.00000 
0.00000 0.00012 0.00000 
0.00000 0.00006 0.00000 
0.00100 0.00123 0.00000 
0.00100 0.00127 0.00000 
0.00000 0.00123 0.00000 
0.00000 0.00127 0.00000 
0.00095 0.00130 0.00000 
0.00090 0.00130 0.00000 
0.00085 0.00130 0.00000 
0.00080 0.00130 0.00000 
0.00075 0.00130 0.00000 
0.00070 0.00130 0.00000 
0.00065 0.00130 0.00000 
0.00060 0.00130 0.00000 
0.00055 0.00130 0.00000 
0.00050 0.00130 0.00000 
0.00045 0.00130 0.00000 
0.00040 0.00130 0.00000 
0.00035 0.00130 0.00000 
0.00030 0.00130 0.00000 
0.00025 0.00130 0.00000 
0.00020 0.00130 0.00000 
0.00015 0.00130 0.00000 
0.00010 0.00130 0.00000 
0.00005 0.00130 0.00000 
0.00104 0.00120 0.00000 
0.00108 0.00120 0.00000 
0.00112 0.00120 0.00000 
0.00116 0.00120 0.00000 
0.00104 0.00130 0.00000 
0.00108 0.00130 0.00000 
0.00112 0.00130 0.00000 
0.00116 0.00130 0.00000 
0.00120 0.00123 0.00000 
0.00120 0.00127 0.00000 
0.00125 0.00120 0.00000 
0.00130 0.00120 0.00000 
0.00135 0.00120 0.00000 
0.00140 0.00120 0.00000 
0.00145 0.00120 0.00000 
0.00150 0.00120 0.00000 
0.00155 0.00120 0.00000 
0.00160 0.00120 0.00000 
0.00165 0.00120 0.00000 
0.00170 0.00120 0.00000 
0.00175 0.00120 0.00000 
0.00180 0.00120 0.00000 
0.00185 0.00120 0.00000 
0.00190 0.00120 0.00000 
0.00195 0.00120 0.00000 
0.00200 0.00120 0.00000 
0.00205 0.00120 0.00000 
0.00210 0.00120 0.00000 
0.00215 0.00120 0.00000 
0.00125 0.00130 0.00000 
0.00130 0.00130 0.00000 
0.00135 0.00130 0.00000 
0.00140 0.00130 0.00000 
0.00145 0.00130 0.00000 
0.00150 0.00130 0.00000 
0.00155 0.00130 0.00000 
0.00160 0.00130 0.00000 
0.00165 0.00130 0.00000 
0.00170 0.00130 0.00000 
0.00175 0.00130 0.00000 
0.00180 0.00130 0.00000 
0.00185 0.00130 0.00000 
0.00190 0.00130 0.00000 
0.00195 0.00130 0.00000 
0.00200 0.00130 0.00000 
0.00205 0.00130 0.00000 
0.00210 0.00130 0.00000 
0.00215 0.00130 0.00000 
0.00220 0.00123 0.00000 
0.00220 0.00127 0.00000 
0.00120 0.00114 0.00000 
0.00120 0.00108 0.00000 
0.00120 0.00102 0.00000 
0.00120 0.00096 0.00000 
0.00120 0.00090 0.00000 
0.00120 0.00084 0.00000 
0.00120 0.00078 0.00000 
0.00120 0.00072 0.00000 
0.00120 0.00066 0.00000 
0.00120 0.00060 0.00000 
0.00120 0.00054 0.00000 
0.00120 0.00048 0.00000 
0.00120 0.00042 0.00000 
0.00120 0.00036 0.00000 
0.00120 0.00030 0.00000 
0.00120 0.00024 0.00000 
0.00120 0.00018 0.00000 
0.00120 0.00012 0.00000 
0.00120 0.00006 0.00000 
0.00220 0.00114 0.00000 
0.00220 0.00108 0.00000 
0.00220 0.00102 0.00000 
0.00220 0.00096 0.00000 
0.00220 0.00090 0.00000 
0.00220 0.00084 0.00000 
0.00220 0.00078 0.00000 
0.00220 0.00072 0.00000 
0.00220 0.00066 0.00000 
0.00220 0.00060 0.00000 
0.00220 0.00054 0.00000 
0.00220 0.00048 0.00000 
0.00220 0.00042 0.00000 
0.00220 0.00036 0.00000 
0.00220 0.00030 0.00000 
0.00220 0.00024 0.00000 
0.00220 0.00018 0.00000 
0.00220 0.00012 0.00000 
0.00220 0.00006 0.00000 
0.00125 0.00000 0.00000 
0.00130 0.00000 0.00000 
0.00135 0.00000 0.00000 
0.00140 0.00000 0.00000 
0.00145 0.00000 0.00000 
0.00150 0.00000 0.00000 
0.00155 0.00000 0.00000 
0.00160 0.00000 0.00000 
0.00165 0.00000 0.00000 
0.00170 0.00000 0.00000 
0.00175 0.00000 0.00000 
0.00180 0.00000 0.00000 
0.00185 0.00000 0.00000 
0.00190 0.00000 0.00000 
0.00195 0.00000 0.00000 
0.00200 0.00000 0.00000 
0.00205 0.00000 0.00000 
0.00210 0.00000 0.00000 
0.00215 0.00000 0.00000 
0.00120 -0.00003 0.00000 
0.00120 -0.00007 0.00000 
0.00220 -0.00003 0.00000 
0.00220 -0.00007 0.00000 
0.00125 -0.00010 0.00000 
0.00130 -0.00010 0.00000 
0.00135 -0.00010 0.00000 
0.00140 -0.00010 0.00000 
0.00145 -0.00010 0.00000 
0.00150 -0.00010 0.00000 
0.00155 -0.00010 0.00000 
0.00160 -0.00010 0.00000 
0.00165 -0.00010 0.00000 
0.00170 -0.00010 0.00000 
0.00175 -0.00010 0.00000 
0.00180 -0.00010 0.00000 
0.00185 -0.00010 0.00000 
0.00190 -0.00010 0.00000 
0.00195 -0.00010 0.00000 
0.00200 -0.00010 0.00000 
0.00205 -0.00010 0.00000 
0.00210 -0.00010 0.00000 
0.00215 -0.00010 0.00000 
0.00000 -0.00003 0.00000 
0.00000 -0.00007 0.00000 
0.00100 -0.00003 0.00000 
0.00100 -0.00007 0.00000 
0.00005 -0.00010 0.00000 
0.00010 -0.00010 0.00000 
0.00015 -0.00010 0.00000 
0.00020 -0.00010 0.00000 
0.00025 -0.00010 0.00000 
0.00030 -0.00010 0.00000 
0.00035 -0.00010 0.00000 
0.00040 -0.00010 0.00000 
0.00045 -0.00010 0.00000 
0.00050 -0.00010 0.00000 
0.00055 -0.00010 0.00000 
0.00060 -0.00010 0.00000 
0.00065 -0.00010 0.00000 
0.00070 -0.00010 0.00000 
0.00075 -0.00010 0.00000 
0.00080 -0.00010 0.00000 
0.00085 -0.00010 0.00000 
0.00090 -0.00010 0.00000 
0.00095 -0.00010 0.00000 
0.00225 0.00000 0.00000 
0.00225 -0.00010 0.00000 
0.00230 -0.00003 0.00000 
0.00230 -0.00007 0.00000 
-0.00005 0.00000 0.00000 
-0.00005 -0.00010 0.00000 
-0.00010 -0.00003 0.00000 
-0.00010 -0.00007 0.00000 
0.00000 -0.00014 0.00000 
0.00000 -0.00018 0.00000 
0.00000 -0.00022 0.00000 
0.00000 -0.00026 0.00000 
0.00100 -0.00014 0.00000 
0.00100 -0.00018 0.00000 
0.00100 -0.00022 0.00000 
0.00100 -0.00026 0.00000 
0.00005 -0.00030 0.00000 
0.00010 -0.00030 0.00000 
0.00015 -0.00030 0.00000 
0.00020 -0.00030 0.00000 
0.00025 -0.00030 0.00000 
0.00030 -0.00030 0.00000 
0.00035 -0.00030 0.00000 
0.00040 -0.00030 0.00000 
0.00045 -0.00030 0.00000 
0.00050 -0.00030 0.00000 
0.00055 -0.00030 0.00000 
0.00060 -0.00030 0.00000 
0.00065 -0.00030 0.00000 
0.00070 -0.00030 0.00000 
0.00075 -0.00030 0.00000 
0.00080 -0.00030 0.00000 
0.00085 -0.00030 0.00000 
0.00090 -0.00030 0.00000 
0.00095 -0.00030 0.00000 
-0.00010 -0.00014 0.00000 
-0.00010 -0.00018 0.00000 
-0.00010 -0.00022 0.00000 
-0.00010 -0.00026 0.00000 
-0.00005 -0.00030 0.00000 
0.00120 -0.00014 0.00000 
0.00120 -0.00018 0.00000 
0.00120 -0.00022 0.00000 
0.00120 -0.00026 0.00000 
0.00220 -0.00014 0.00000 
0.00220 -0.00018 0.00000 
0.00220 -0.00022 0.00000 
0.00220 -0.00026 0.00000 
0.00125 -0.00030 0.00000 
0.00130 -0.00030 0.00000 
0.00135 -0.00030 0.00000 
0.00140 -0.00030 0.00000 
0.00145 -0.00030 0.00000 
0.00150 -0.00030 0.00000 
0.00155 -0.00030 0.00000 
0.00160 -0.00030 0.00000 
0.00165 -0.00030 0.00000 
0.00170 -0.00030 0.00000 
0.00175 -0.00030 0.00000 
0.00180 -0.00030 0.00000 
0.00185 -0.00030 0.00000 
0.00190 -0.00030 0.00000 
0.00195 -0.00030 0.00000 
0.00200 -0.00030 0.00000 
0.00205 -0.00030 0.00000 
0.00210 -0.00030 0.00000 
0.00215 -0.00030 0.00000 
0.00230 -0.00014 0.00000 
0.00230 -0.00018 0.00000 
0.00230 -0.00022 0.00000 
0.00230 -0.00026 0.00000 
0.00225 -0.00030 0.00000 
0.00100 0.00134 0.00000 
0.00100 0.00138 0.00000 
0.00100 0.00142 0.00000 
0.00100 0.00146 0.00000 
0.00000 0.00134 0.00000 
0.00000 0.00138 0.00000 
0.00000 0.00142 0.00000 
0.00000 0.00146 0.00000 
0.00095 0.00150 0.00000 
0.00090 0.00150 0.00000 
0.00085 0.00150 0.00000 
0.00080 0.00150 0.00000 
0.00075 0.00150 0.00000 
0.00070 0.00150 0.00000 
0.00065 0.00150 0.00000 
0.00060 0.00150 0.00000 
0.00055 0.00150 0.00000 
0.00050 0.00150 0.00000 
0.00045 0.00150 0.00000 
0.00040 0.00150 0.00000 
0.00035 0.00150 0.00000 
0.00030 0.00150 0.00000 
0.00025 0.00150 0.00000 
0.00020 0.00150 0.00000 
0.00015 0.00150 0.00000 
0.00010 0.00150 0.00000 
0.00005 0.00150 0.00000 
0.00120 0.00134 0.00000 
0.00120 0.00138 0.00000 
0.00120 0.00142 0.00000 
0.00120 0.00146 0.00000 
0.00104 0.00150 0.00000 
0.00108 0.00150 0.00000 
0.00112 0.00150 0.00000 
0.00116 0.00150 0.00000 
0.00220 0.00134 0.00000 
[...]
CELL_DATA 1512
SCALARS data float 1 
LOOKUP_TABLE data
 1.000000e+00 
 1.000000e+00 
 1.000000e+00 
 1.000000e+00 
 1.000000e+00 
 1.000000e+00 
 1.000000e+00 
 1.000000e+00 
 1.000000e+00 
 1.000000e+00 
 1.000000e+00 
 1.000000e+00 
 1.000000e+00 
 1.000000e+00 
 1.000000e+00 
 1.000000e+00 
 1.000000e+00 
 1.000000e+00 
 1.000000e+00 
 1.000000e+00 
 1.000000e+00 
 1.000000e+00 
 1.000000e+00 
 1.000000e+00 
 1.000000e+00 
 1.000000e+00 
 1.000000e+00 
 1.000000e+00 
 1.000000e+00 
 1.000000e+00 
 1.000000e+00 
 1.000000e+00 
 1.000000e+00 
 1.000000e+00 
 1.000000e+00 
 1.000000e+00 
 1.000000e+00 
 1.000000e+00 
 1.000000e+00 
 1.000000e+00 
 1.000000e+00 
 1.000000e+00 
 1.000000e+00 
 1.000000e+00 
 1.000000e+00 
 1.000000e+00 
 1.000000e+00 
 1.000000e+00 
 1.000000e+00 
 1.000000e+00 
 1.000000e+00 
 1.000000e+00 
 1.000000e+00 
 1.000000e+00 
 1.000000e+00 
 1.000000e+00 
 1.000000e+00 
 1.000000e+00 
 1.000000e+00 
 1.000000e+00 
 1.000000e+00 
 1.000000e+00 
 1.000000e+00 
 1.000000e+00 
 1.000000e+00 
 1.000000e+00 
 1.000000e+00 
 1.000000e+00 
 1.000000e+00 
 1.000000e+00 
 1.000000e+00 
 1.000000e+00 
 1.000000e+00 
 1.000000e+00 
 1.000000e+00 
 1.000000e+00 
 1.000000e+00 
 1.000000e+00 
 1.000000e+00 
 1.000000e+00 
 1.000000e+00 
 1.000000e+00 
 1.000000e+00 
 1.000000e+00 
 1.000000e+00 
 1.000000e+00 
 1.000000e+00 
 1.000000e+00 
 1.000000e+00 
 1.000000e+00 
 1.000000e+00 
 1.000000e+00 
 1.000000e+00 
 1.000000e+00 
 1.000000e+00 
 1.000000e+00 
 1.000000e+00 
 1.000000e+00 
 1.000000e+00 
 1.000000e+00 
 1.000000e+00 
 1.000000e+00 
 1.000000e+00 
 1.000000e+00 
 1.000000e+00 
 1.000000e+00 
 1.000000e+00 
 1.000000e+00 
 1.000000e+00 
 1.000000e+00 
 1.000000e+00 
 1.000000e+00 
 1.000000e+00 
 1.000000e+00 
 1.000000e+00 
 1.000000e+00 
 1.000000e+00 
 1.000000e+00 
 1.000000e+00 
 1.000000e+00 
 1.000000e+00 
 1.000000e+00 
 1.000000e+00 
 1.000000e+00 
 1.000000e+00 
 1.000000e+00 
 1.000000e+00 
 1.000000e+00 
 1.000000e+00 
 1.000000e+00 
 1.000000e+00 
 1.000000e+00 
 1.000000e+00 
 1.000000e+00 
 1.000000e+00 
 1.000000e+00 
 1.000000e+00 
 1.000000e+00 
 1.000000e+00 
 1.000000e+00 
 1.000000e+00 
 1.000000e+00 
 1.000000e+00 
 1.000000e+00 
 1.000000e+00 
 1.000000e+00 
 1.000000e+00 
 1.000000e+00 
 1.000000e+00 
 1.000000e+00 
 1.000000e+00 
 1.000000e+00 
 1.000000e+00 
 1.000000e+00 
 1.000000e+00 
 1.000000e+00 
 1.000000e+00 
 1.000000e+00 
 1.000000e+00 
 1.000000e+00 
 1.000000e+00 
 1.000000e+00 
 1.000000e+00 
 1.000000e+00 
 1.000000e+00 
 1.000000e+00 
 1.000000e+00 
 1.000000e+00 
 1.000000e+00 
 1.000000e+00 
 1.000000e+00 
 1.000000e+00 
 1.000000e+00 
 1.000000e+00 
 1.000000e+00 
 1.000000e+00 
 1.000000e+00 
 1.000000e+00 
 1.000000e+00 
 1.000000e+00 
 1.000000e+00 
 1.000000e+00 
 1.000000e+00 
 1.000000e+00 
 1.000000e+00 
 1.000000e+00 
 1.000000e+00 
 1.000000e+00 
 1.000000e+00 
 1.000000e+00 
 1.000000e+00 
 1.000000e+00 
 1.000000e+00 
 1.000000e+00 
 1.000000e+00 
 1.000000e+00 
 1.000000e+00 
 1.000000e+00 
 1.000000e+00 
 1.000000e+00 
 1.000000e+00 
 1.000000e+00 
 1.000000e+00 
 1.000000e+00 
 1.000000e+00 
 1.000000e+00 
 1.000000e+00 
 1.000000e+00 
 1.000000e+00 
 1.000000e+00 
 1.000000e+00 
 1.000000e+00 
 1.000000e+00 
 1.000000e+00 
 1.000000e+00 
 1.000000e+00 
 1.000000e+00 
 1.000000e+00 
 1.000000e+00 
 1.000000e+00 
 1.000000e+00 
 1.000000e+00 
 1.000000e+00 
 1.000000e+00 
 1.000000e+00 
 1.000000e+00 
 1.000000e+00 
 1.000000e+00 
 1.000000e+00 
 1.000000e+00 
 1.000000e+00 
 1.000000e+00 
 1.000000e+00 
 1.000000e+00 
 1.000000e+00 
 1.000000e+00 
 1.000000e+00 
 1.000000e+00 
 1.000000e+00 
 1.000000e+00 
 1.000000e+00 
 1.000000e+00 
 1.000000e+00 
 1.000000e+00 
 1.000000e+00 
 1.000000e+00 
 1.000000e+00 
 1.000000e+00 
 1.000000e+00 
 1.000000e+00 
 1.000000e+00 
 1.000000e+00 
 1.000000e+00 
 1.000000e+00 
 1.000000e+00 
 1.000000e+00 
 1.000000e+00 
 1.000000e+00 
 1.000000e+00 
 1.000000e+00 
 1.000000e+00 
 1.000000e+00 
 1.000000e+00 
 1.000000e+00 
 1.000000e+00 
 1.000000e+00 
 1.000000e+00 
 1.000000e+00 
 1.000000e+00 
 1.000000e+00 
 1.000000e+00 
 1.000000e+00 
 1.000000e+00 
 1.000000e+00 
 1.000000e+00 
 1.000000e+00 
 1.000000e+00 
 1.000000e+00 
 1.000000e+00 
 1.000000e+00 
 1.000000e+00 
 1.000000e+00 
 1.000000e+00 
 1.000000e+00 
 1.000000e+00 
 1.000000e+00 
 1.000000e+00 
 1.000000e+00 
 1.000000e+00 
 1.000000e+00 
 1.000000e+00 
 1.000000e+00 
 1.000000e+00 
 1.000000e+00 
 1.000000e+00 
 1.000000e+00 
 1.000000e+00 
 1.000000e+00 
 1.000000e+00 
 1.000000e+00 
 1.000000e+00 
 1.000000e+00 
 1.000000e+00 
 1.000000e+00 
 1.000000e+00 
 1.000000e+00 
 1.000000e+00 
 1.000000e+00 
 1.000000e+00 
 1.000000e+00 
 1.000000e+00 
 1.000000e+00 
 1.000000e+00 
 1.000000e+00 
 1.000000e+00 
 1.000000e+00 
 1.000000e+00 
 1.000000e+00 
 1.000000e+00 
 1.000000e+00 
 1.000000e+00 
 1.000000e+00 
 1.000000e+00 
 1.000000e+00 
 1.000000e+00 
 1.000000e+00 
 1.000000e+00 
 1.000000e+00 
 1.000000e+00 
 1.000000e+00 
 1.000000e+00 
 1.000000e+00 
 1.000000e+00 
 1.000000e+00 
 1.000000e+00 
 1.000000e+00 
 1.000000e+00 
 1.000000e+00 
 1.000000e+00 
 1.000000e+00 
 1.000000e+00 
 1.000000e+00 
 1.000000e+00 
 1.000000e+00 
 1.000000e+00 
 1.000000e+00 
 1.000000e+00 
 1.000000e+00 
 1.000000e+00 
 1.000000e+00 
 1.000000e+00 
 1.000000e+00 
 1.000000e+00 
 1.000000e+00 
 1.000000e+00 
 1.000000e+00 
 1.000000e+00 
 1.000000e+00 
 1.000000e+00 
 1.000000e+00 
 1.000000e+00 
 1.000000e+00 
 1.000000e+00 
 1.000000e+00 
 1.000000e+00 
 1.000000e+00 
 1.000000e+00 
 1.000000e+00 
 1.000000e+00 
 1.000000e+00 
 1.000000e+00 
 1.000000e+00 
 1.000000e+00 
 1.000000e+00 
 1.000000e+00 
 1.000000e+00 
 1.000000e+00 
 1.000000e+00 
 1.000000e+00 
 1.000000e+00 
 1.000000e+00 
 1.000000e+00 
 1.000000e+00 
 1.000000e+00 
 1.000000e+00 
 1.000000e+00 
 1.000000e+00 
 1.000000e+00 
 1.000000e+00 
 1.000000e+00 
 1.000000e+00 
 1.000000e+00 
 1.000000e+00 
 1.000000e+00 
 1.000000e+00 
 1.000000e+00 
 1.000000e+00 
 1.000000e+00 
 1.000000e+00 
 1.000000e+00 
 1.000000e+00 
 1.000000e+00 
 1.000000e+00 
 1.000000e+00 
 1.000000e+00 
 1.000000e+00 
 1.000000e+00 
 1.000000e+00 
 1.000000e+00 
 1.000000e+00 
 1.000000e+00 
 1.000000e+00 
 1.000000e+00 
 1.000000e+00 
 1.000000e+00 
 1.000000e+00 
 1.000000e+00 
 1.000000e+00 
 1.000000e+00 
 1.000000e+00 
 1.000000e+00 
 1.000000e+00 
 1.000000e+00 
 1.000000e+00 
 1.000000e+00 
 1.000000e+00 
 1.000000e+00 
 1.000000e+00 
 1.000000e+00 
 1.000000e+00 
 1.000000e+00 
 1.000000e+00 
 1.000000e+00 
 1.000000e+00 
 1.000000e+00 
 1.000000e+00 
 1.000000e+00 
 1.000000e+00 
 1.000000e+00 
 1.000000e+00 
 1.000000e+00 
 1.000000e+00 
 1.000000e+00 
 1.000000e+00 
 1.000000e+00 
 1.000000e+00 
 1.000000e+00 
 1.000000e+00 
 1.000000e+00 
 1.000000e+00 
 1.000000e+00 
 1.000000e+00 
 1.000000e+00 
 1.000000e+00 
 1.000000e+00 
 1.000000e+00 
 1.000000e+00 
 1.000000e+00 
 1.000000e+00 
 1.000000e+00 
 1.000000e+00 
 1.000000e+00 
 1.000000e+00 
 1.000000e+00 
 1.000000e+00 
 1.000000e+00 
 1.000000e+00 
 1.000000e+00 
 1.000000e+00 
 1.000000e+00 
 1.000000e+00 
 1.000000e+00 
 1.000000e+00 
 1.000000e+00 
 1.000000e+00 
 1.000000e+00 
 1.000000e+00 
 1.000000e+00 
 1.000000e+00 
 1.000000e+00 
 1.000000e+00 
 1.000000e+00 
 1.000000e+00 
 1.000000e+00 
 1.000000e+00 
 1.000000e+00 
 1.000000e+00 
 1.000000e+00 
 1.000000e+00 
 1.000000e+00 
 1.000000e+00 
 1.000000e+00 
 1.000000e+00 
 1.000000e+00 
 1.000000e+00 
 1.000000e+00 
 1.000000e+00 
 1.000000e+00 
 1.000000e+00 
 1.000000e+00 
 1.000000e+00 
 1.000000e+00 
 1.000000e+00 
 1.000000e+00 
 1.000000e+00 
 1.000000e+00 
 1.000000e+00 
 1.000000e+00 
 1.000000e+00 
 1.000000e+00 
 1.000000e+00 
 1.000000e+00 
 1.000000e+00 
 1.000000e+00 
 1.000000e+00 
 1.000000e+00 
 1.000000e+00 
 1.000000e+00 
 1.000000e+00 
 1.000000e+00 
 1.000000e+00 
 1.000000e+00 
 1.000000e+00 
 1.000000e+00 
 1.000000e+00 
 1.000000e+00 
 1.000000e+00 
 1.000000e+00 
 1.000000e+00 
 1.000000e+00 
 1.000000e+00 
 1.000000e+00 
 1.000000e+00 
 1.000000e+00 
 1.000000e+00 
 1.000000e+00 
 1.000000e+00 
 1.000000e+00 
 1.000000e+00 
 1.000000e+00 
 1.000000e+00 
 1.000000e+00 
 1.000000e+00 
 1.000000e+00 
 1.000000e+00 
 1.000000e+00 
 1.000000e+00 
 1.000000e+00 
 1.000000e+00 
 1.000000e+00 
 1.000000e+00 
 1.000000e+00 
 1.000000e+00 
 1.000000e+00 
 1.000000e+00 
 1.000000e+00 
 1.000000e+00 
 1.000000e+00 
 1.000000e+00 
 1.000000e+00 
 1.000000e+00 
 1.000000e+00 
 1.000000e+00 
 1.000000e+00 
 1.000000e+00 
 1.000000e+00 
 1.000000e+00 
 1.000000e+00 
 1.000000e+00 
 1.000000e+00 
 1.000000e+00 
 1.000000e+00 
 1.000000e+00 
 1.000000e+00 
 1.000000e+00 
 1.000000e+00 
 1.000000e+00 
 1.000000e+00 
 1.000000e+00 
 1.000000e+00 
 1.000000e+00 
 1.000000e+00 
 1.000000e+00 
 1.000000e+00 
 1.000000e+00 
 1.000000e+00 
 1.000000e+00 
 1.000000e+00 
 1.000000e+00 
 1.000000e+00 
 1.000000e+00 
 1.000000e+00 
 1.000000e+00 
 1.000000e+00 
 1.000000e+00 
 1.000000e+00 
 1.000000e+00 
 1.000000e+00 
 1.000000e+00 
 1.000000e+00 
 1.000000e+00 
 1.000000e+00 
 1.000000e+00 
 1.000000e+00 
 1.000000e+00 
 1.000000e+00 
 1.000000e+00 
 1.000000e+00 
 1.000000e+00 
 1.000000e+00 
 1.000000e+00 
 1.000000e+00 
 1.000000e+00 
 1.000000e+00 
 1.000000e+00 
 1.000000e+00 
 1.000000e+00 
 1.000000e+00 
 1.000000e+00 
 1.000000e+00 
 1.000000e+00 
 1.000000e+00 
 1.000000e+00 
 1.000000e+00 
 1.000000e+00 
 1.000000e+00 
 1.000000e+00 
 1.000000e+00 
 1.000000e+00 
 1.000000e+00 
 1.000000e+00 
 1.000000e+00 
 1.000000e+00 
 1.000000e+00 
 1.000000e+00 
 1.000000e+00 
 1.000000e+00 
 1.000000e+00 
 1.000000e+00 
 1.000000e+00 
 1.000000e+00 
 1.000000e+00 
 1.000000e+00 
 1.000000e+00 
 1.000000e+00 
 1.000000e+00 
 1.000000e+00 
 1.000000e+00 
 1.000000e+00 
 1.000000e+00 
 1.000000e+00 
 1.000000e+00 
 1.000000e+00 
 1.000000e+00 
 1.000000e+00 
 1.000000e+00 
 1.000000e+00 
 1.000000e+00 
 1.000000e+00 
 1.000000e+00 
 1.000000e+00 
 1.000000e+00 
 1.000000e+00 
 1.000000e+00 
 1.000000e+00 
 1.000000e+00 
 1.000000e+00 
 1.000000e+00 
 1.000000e+00 
 1.000000e+00 
 1.000000e+00 
 1.000000e+00 
 1.000000e+00 
 1.000000e+00 
 1.000000e+00 
 1.000000e+00 
 1.000000e+00 
 1.000000e+00 
 1.000000e+00 
 1.000000e+00 
 1.000000e+00 
 1.000000e+00 
 1.000000e+00 
 1.000000e+00 
 1.000000e+00 
 1.000000e+00 
 1.000000e+00 
 1.000000e+00 
 1.000000e+00 
 1.000000e+00 
 1.000000e+00 
 1.000000e+00 
 1.000000e+00 
 1.000000e+00 
 1.000000e+00 
 1.000000e+00 
 1.000000e+00 
 1.000000e+00 
 1.000000e+00 
 1.000000e+00 
 1.000000e+00 
 1.000000e+00 
 1.000000e+00 
 1.000000e+00 
 1.000000e+00 
 1.000000e+00 
 1.000000e+00 
 1.000000e+00 
 1.000000e+00 
 1.000000e+00 
 1.000000e+00 
 1.000000e+00 
 1.000000e+00 
 1.000000e+00 
 1.000000e+00 
 1.000000e+00 
 1.000000e+00 
 1.000000e+00 
 1.000000e+00 
 1.000000e+00 
 1.000000e+00 
 1.000000e+00 
 1.000000e+00 
 1.000000e+00 
 1.000000e+00 
 1.000000e+00 
 1.000000e+00 
 1.000000e+00 
 1.000000e+00 
 1.000000e+00 
 1.000000e+00 
 1.000000e+00 
 1.000000e+00 
 1.000000e+00 
 1.000000e+00 
 1.000000e+00 
 1.000000e+00 
 1.000000e+00 
 1.000000e+00 
 1.000000e+00 
 1.000000e+00 
 1.000000e+00 
 1.000000e+00 
 1.000000e+00 
 1.000000e+00 
 1.000000e+00 
 1.000000e+00 
 1.000000e+00 
 1.000000e+00 
 1.000000e+00 
 1.000000e+00 
 1.000000e+00 
 1.000000e+00 
 1.000000e+00 
 1.000000e+00 
 1.000000e+00 
 1.000000e+00 
 1.000000e+00 
 1.000000e+00 
 1.000000e+00 
 1.000000e+00 
 1.000000e+00 
 1.000000e+00 
 1.000000e+00 
 1.000000e+00 
 1.000000e+00 
 1.000000e+00 
 1.000000e+00 
 1.000000e+00 
 1.000000e+00 
 1.000000e+00 
 1.000000e+00 
 1.000000e+00 
 1.000000e+00 
 1.000000e+00 
 1.000000e+00 
 1.000000e+00 
 1.000000e+00 
 1.000000e+00 
 1.000000e+00 
 1.000000e+00 
 1.000000e+00 
 1.000000e+00 
 1.000000e+00 
 1.000000e+00 
 1.000000e+00 
 1.000000e+00 
 1.000000e+00 
 1.000000e+00 
 1.000000e+00 
 1.000000e+00 
 1.000000e+00 
 1.000000e+00 
 1.000000e+00 
 1.000000e+00 
 1.000000e+00 
 1.000000e+00 
 1.000000e+00 
 1.000000e+00 
 1.000000e+00 
 1.000000e+00 
 1.000000e+00 
 1.000000e+00 
 1.000000e+00 
 1.000000e+00 
 1.000000e+00 
 1.000000e+00 
 1.000000e+00 
 1.000000e+00 
 1.000000e+00 
 1.000000e+00 
 1.000000e+00 
 1.000000e+00 
 1.000000e+00 
 1.000000e+00 
 1.000000e+00 
 1.000000e+00 
 1.000000e+00 
 1.000000e+00 
 1.000000e+00 
 1.000000e+00 
 1.000000e+00 
 1.000000e+00 
 1.000000e+00 
 1.000000e+00 
 1.000000e+00 
 1.000000e+00 
 1.000000e+00 
 1.000000e+00 
 1.000000e+00 
 1.000000e+00 
 1.000000e+00 
 1.000000e+00 
 1.000000e+00 
 1.000000e+00 
 1.000000e+00 
 1.000000e+00 
 1.000000e+00 
 1.000000e+00 
 1.000000e+00 
 1.000000e+00 
 1.000000e+00 
 1.000000e+00 
 1.000000e+00 
 1.000000e+00 
 1.000000e+00 
 1.000000e+00 
 1.000000e+00 
 1.000000e+00 
 1.000000e+00 
 1.000000e+00 
 1.000000e+00 
 1.000000e+00 
 1.000000e+00 
 1.000000e+00 
 1.000000e+00 
 1.000000e+00 
 1.000000e+00 
 1.000000e+00 
 1.000000e+00 
 1.000000e+00 
 1.000000e+00 
 1.000000e+00 
 1.000000e+00 
 1.000000e+00 
 1.000000e+00 
 1.000000e+00 
 1.000000e+00 
 1.000000e+00 
 1.000000e+00 
 1.000000e+00 
 1.000000e+00 
 1.000000e+00 
 1.000000e+00 
 1.000000e+00 
 1.000000e+00 
 1.000000e+00 
 1.000000e+00 
 1.000000e+00 
 1.000000e+00 
 1.000000e+00 
 1.000000e+00 
 1.000000e+00 
 1.000000e+00 
 1.000000e+00 
 1.000000e+00 
 1.000000e+00 
 1.000000e+00 
 1.000000e+00 
 1.000000e+00 
 1.000000e+00 
 1.000000e+00 
 1.000000e+00 
 1.000000e+00 
 1.000000e+00 
 1.000000e+00 
 1.000000e+00 
 1.000000e+00 
 1.000000e+00 
 1.000000e+00 
 1.000000e+00 
 1.000000e+00 
 1.000000e+00 
 1.000000e+00 
 1.000000e+00 
 1.000000e+00 
 1.000000e+00 
 1.000000e+00 
 1.000000e+00 
 1.000000e+00 
 1.000000e+00 
 1.000000e+00 
 1.000000e+00 
 1.000000e+00 
 1.000000e+00 
 1.000000e+00 
 1.000000e+00 
 1.000000e+00 
 1.000000e+00 
 1.000000e+00 
 1.000000e+00 
 1.000000e+00 
 1.000000e+00 
 1.000000e+00 
 1.000000e+00 
 1.000000e+00 
 1.000000e+00 
 1.000000e+00 
 1.000000e+00 
 1.000000e+00 
 1.000000e+00 
 1.000000e+00 
 1.000000e+00 
 1.000000e+00 
 1.000000e+00 
 1.000000e+00 
 1.000000e+00 
 1.000000e+00 
 1.000000e+00 
 1.000000e+00 
 1.000000e+00 
 1.000000e+00 
 1.000000e+00 
 1.000000e+00 
 1.000000e+00 
 1.000000e+00 
 1.000000e+00 
 1.000000e+00 
 1.000000e+00 
 1.000000e+00 
 1.000000e+00 
 1.000000e+00 
 1.000000e+00 
 1.000000e+00 
 1.000000e+00 
 1.000000e+00 
 1.000000e+00 
 1.000000e+00 
 1.000000e+00 
 1.000000e+00 
 1.000000e+00 
 1.000000e+00 
 1.000000e+00 
 1.000000e+00 
 1.000000e+00 
 1.000000e+00 
 1.000000e+00 
 1.000000e+00 
 1.000000e+00 
 1.000000e+00 
 1.000000e+00 
 1.000000e+00 
 1.000000e+00 
 1.000000e+00 
 1.000000e+00 
 1.000000e+00 
 1.000000e+00 
 1.000000e+00 
 1.000000e+00 
 1.000000e+00 
 1.000000e+00 
 1.000000e+00 
 1.000000e+00 
 1.000000e+00 
 1.000000e+00 
 1.000000e+00 
 1.000000e+00 
 1.000000e+00 
 1.000000e+00 
 1.000000e+00 
 1.000000e+00 
 1.000000e+00 
 1.000000e+00 
 1.000000e+00 
 1.000000e+00 
 1.000000e+00 
 1.000000e+00 
 1.000000e+00 
 1.000000e+00 
 1.000000e+00 
 1.000000e+00 
 1.000000e+00 
 1.000000e+00 
 1.000000e+00 
 1.000000e+00 
 1.000000e+00 
 1.000000e+00 
 1.000000e+00 
 1.000000e+00 
 1.000000e+00 
 1.000000e+00 
 1.000000e+00 
 1.000000e+00 
 1.000000e+00 
 1.000000e+00 
 1.000000e+00 
 1.000000e+00 
 1.000000e+00 
 1.000000e+00 
 1.000000e+00 
 1.000000e+00 
 1.000000e+00 
 1.000000e+00 
 1.000000e+00 
 1.000000e+00 
 1.000000e+00 
 1.000000e+00 
 1.000000e+00 
 1.000000e+00 
 1.000000e+00 
 1.000000e+00 
 1.000000e+00 
 1.000000e+00 
 1.000000e+00 
 1.000000e+00 
 1.000000e+00 
 1.000000e+00 
 1.000000e+00 
 1.000000e+00 
 1.000000e+00 
 1.000000e+00 
 1.000000e+00 
 1.000000e+00 
 1.000000e+00 
 1.000000e+00 
 1.000000e+00 
 1.000000e+00 
 1.000000e+00 
 1.000000e+00 
 1.000000e+00 
 1.000000e+00 
 1.000000e+00 
 1.000000e+00 
 1.000000e+00 
 1.000000e+00 
 1.000000e+00 
 1.000000e+00 
 1.000000e+00 
 1.000000e+00 
 1.000000e+00 
 1.000000e+00 
 1.000000e+00 
 1.000000e+00 
 1.000000e+00 
 1.000000e+00 
 1.000000e+00 
 1.000000e+00 
 1.000000e+00 
 1.000000e+00 
 1.000000e+00 
 1.000000e+00 
 1.000000e+00 
 1.000000e+00 
 1.000000e+00 
 1.000000e+00 
 1.000000e+00 
 1.000000e+00 
 1.000000e+00 
 1.000000e+00 
 1.000000e+00 
 1.000000e+00 
 1.000000e+00 
 1.000000e+00 
 1.000000e+00 
 1.000000e+00 
 1.000000e+00 
 1.000000e+00 
 1.000000e+00 
 1.000000e+00 
 1.000000e+00 
 1.000000e+00 
 1.000000e+00 
 1.000000e+00 
 1.000000e+00 
 1.000000e+00 
 1.000000e+00 
 1.000000e+00 
 1.000000e+00 
 1.000000e+00 
 1.000000e+00 
 1.000000e+00 
 1.000000e+00 
 1.000000e+00 
 1.000000e+00 
 1.000000e+00 
 1.000000e+00 
 1.000000e+00 
 1.000000e+00 
 1.000000e+00 
 1.000000e+00 
 1.000000e+00 
 1.000000e+00 
 1.000000e+00 
 1.000000e+00 
 1.000000e+00 
 1.000000e+00 
 1.000000e+00 
 1.000000e+00 
 1.000000e+00 
 1.000000e+00 
 1.000000e+00 
 1.000000e+00 
 1.000000e+00 
 1.000000e+00 
 1.000000e+00 
 1.000000e+00 
 1.000000e+00 
 1.000000e+00 
 1.000000e+00 
 1.000000e+00 
 1.000000e+00 
 1.000000e+00 
 1.000000e+00 
 1.000000e+00 
 1.000000e+00 
 1.000000e+00 
 1.000000e+00 
 1.000000e+00 
 1.000000e+00 
 1.000000e+00 
 1.000000e+00 
 1.000000e+00 
 1.000000e+00 
 1.000000e+00 
 1.000000e+00 
 1.000000e+00 
 1.000000e+00 
 1.000000e+00 
 1.000000e+00 
 1.000000e+00 
 1.000000e+00 
 1.000000e+00 
 1.000000e+00 
 1.000000e+00 
 1.000000e+00 
 1.000000e+00 
 1.000000e+00 
 1.000000e+00 
 1.000000e+00 
 1.000000e+00 
 1.000000e+00 
 1.000000e+00 
 1.000000e+00 
 1.000000e+00 
 1.000000e+00 
 1.000000e+00 
 1.000000e+00 
 1.000000e+00 
 1.000000e+00 
 1.000000e+00 
 1.000000e+00 
 1.000000e+00 
 1.000000e+00 
 1.000000e+00 
 1.000000e+00 
 1.000000e+00 
 1.000000e+00 
 1.000000e+00 
 1.000000e+00 
 1.000000e+00 
 1.000000e+00 
 1.000000e+00 
 1.000000e+00 
 1.000000e+00 
 1.000000e+00 
 1.000000e+00 
 1.000000e+00 
 1.000000e+00 
 1.000000e+00 
 1.000000e+00 
 1.000000e+00 
 1.000000e+00 
 1.000000e+00 
 1.000000e+00 
 1.000000e+00 
 1.000000e+00 
 1.000000e+00 
 1.000000e+00 
 1.000000e+00 
 1.000000e+00 
 1.000000e+00 
 1.000000e+00 
 1.000000e+00 
 1.000000e+00 
 1.000000e+00 
 1.000000e+00 
 1.000000e+00 
 1.000000e+00 
 1.000000e+00 
 1.000000e+00 
 1.000000e+00 
 1.000000e+00 
 1.000000e+00 
 1.000000e+00 
 1.000000e+00 
 1.000000e+00 
 1.000000e+00 
 1.000000e+00 
 1.000000e+00 
 1.000000e+00 
 1.000000e+00 
 1.000000e+00 
 1.000000e+00 
 1.000000e+00 
 1.000000e+00 
 1.000000e+00 
 1.000000e+00 
 1.000000e+00 
 1.000000e+00 
 1.000000e+00 
 1.000000e+00 
 1.000000e+00 
 1.000000e+00 
 1.000000e+00 
 1.000000e+00 
 1.000000e+00 
 1.000000e+00 
 1.000000e+00 
 1.000000e+00 
 1.000000e+00 
 1.000000e+00 
 1.000000e+00 
 1.000000e+00 
 1.000000e+00 
 1.000000e+00 
 1.000000e+00 
 1.000000e+00 
 1.000000e+00 
 1.000000e+00 
 1.000000e+00 
 1.000000e+00 
 1.000000e+00 
 1.000000e+00 
 1.000000e+00 
 1.000000e+00 
 1.000000e+00 
 1.000000e+00 
 1.000000e+00 
 1.000000e+00 
 1.000000e+00 
 1.000000e+00 
 1.000000e+00 
 1.000000e+00 
 1.000000e+00 
 1.000000e+00 
 1.000000e+00 
 1.000000e+00 
 1.000000e+00 
 1.000000e+00 
 1.000000e+00 
 1.000000e+00 
 1.000000e+00 
 1.000000e+00 
 1.000000e+00 
 1.000000e+00 
 1.000000e+00 
 1.000000e+00 
 1.000000e+00 
 1.000000e+00 
 1.000000e+00 
 1.000000e+00 
 1.000000e+00 
 1.000000e+00 
 1.000000e+00 
 1.000000e+00 
 1.000000e+00 
 1.000000e+00 
 1.000000e+00 
 1.000000e+00 
 1.000000e+00 
 1.000000e+00 
 1.000000e+00 
 1.000000e+00 
 1.000000e+00 
 1.000000e+00 
 1.000000e+00 
 1.000000e+00 
 1.000000e+00 
 1.000000e+00 
 1.000000e+00 
 1.000000e+00 
 1.000000e+00 
 1.000000e+00 
 1.000000e+00 
 1.000000e+00 
 1.000000e+00 
 1.000000e+00 
 1.000000e+00 
 1.000000e+00 
 1.000000e+00 
 1.000000e+00 
 1.000000e+00 
 1.000000e+00 
 1.000000e+00 
 1.000000e+00 
 1.000000e+00 
 1.000000e+00 
 1.000000e+00 
 1.000000e+00 
 1.000000e+00 
 1.000000e+00 
 1.000000e+00 
 1.000000e+00 
 1.000000e+00 
 1.000000e+00 
 1.000000e+00 
 1.000000e+00 
 1.000000e+00 
 1.000000e+00 