# vtk DataFile Version 2.0
VTK from Matlab
ASCII
DATASET UNSTRUCTURED_GRID
POINTS 32 float
0.00000 0.00000 0.00000 
0.00140 0.00000 0.00000 
0.00140 0.00152 0.00000 
0.00000 0.00152 0.00000 
0.00000 0.00000 0.00140 
0.00140 0.00000 0.00140 
0.00140 0.00152 0.00140 
0.00000 0.00152 0.00140 
0.00070 0.00000 0.00000 
0.00140 0.00076 0.00000 
0.00140 0.00038 0.00000 
0.00140 0.00114 0.00000 
0.00070 0.00152 0.00000 
0.00000 0.00076 0.00000 
0.00000 0.00114 0.00000 
0.00000 0.00038 0.00000 
0.00070 0.00000 0.00140 
0.00140 0.00076 0.00140 
0.00140 0.00038 0.00140 
0.00140 0.00114 0.00140 
0.00070 0.00152 0.00140 
0.00000 0.00076 0.00140 
0.00000 0.00114 0.00140 
0.00000 0.00038 0.00140 
0.00000 0.00000 0.00070 
0.00140 0.00000 0.00070 
0.00140 0.00152 0.00070 
0.00000 0.00152 0.00070 
0.00070 0.00076 0.00140 
0.00000 0.00076 0.00070 
0.00070 0.00076 0.00000 
0.00140 0.00076 0.00070 

CELLS 2 18
         8         17          5          4         21          9          1          0         13 
         8          6         17         21          7          2          9         13          3 
CELL_TYPES 2
        12
        12

POINT_DATA 32
SCALARS TV float 2 
LOOKUP_TABLE TV
 2.980000e+02  -5.800000e-02 
 2.980000e+02  -5.800000e-02 
 2.980000e+02  0.000000e+00 
 2.980000e+02  0.000000e+00 
 2.980000e+02  -5.800000e-02 
 2.980000e+02  -5.800000e-02 
 2.980000e+02  0.000000e+00 
 2.980000e+02  0.000000e+00 
 2.980000e+02  -5.800000e-02 
 3.199693e+02  -3.326424e-02 
 3.144770e+02  -4.669818e-02 
 3.144770e+02  -1.769818e-02 
 2.980000e+02  0.000000e+00 
 3.199693e+02  -3.326424e-02 
 3.144770e+02  -1.769818e-02 
 3.144770e+02  -4.669818e-02 
 2.980000e+02  -5.800000e-02 
 3.199693e+02  -3.326424e-02 
 3.144770e+02  -4.669818e-02 
 3.144770e+02  -1.769818e-02 
 2.980000e+02  0.000000e+00 
 3.199693e+02  -3.326424e-02 
 3.144770e+02  -1.769818e-02 
 3.144770e+02  -4.669818e-02 
 2.980000e+02  -5.800000e-02 
 2.980000e+02  -5.800000e-02 
 2.980000e+02  0.000000e+00 
 2.980000e+02  0.000000e+00 
 3.199693e+02  -3.326424e-02 
 3.199693e+02  -3.326424e-02 
 3.199693e+02  -3.326424e-02 
 3.199693e+02  -3.326424e-02 
